# Region type : sampledSurface FranciscoHolanda
# Faces         : 800
# Area          : 5.83742085e+04
# Scale factor  : 1.00000000e+00
# Time          	areaAverage(T)
100             	1.58911382e-08
