# Region type : sampledSurface SantosSimoes
# Faces         : 632
# Area          : 4.55522463e+04
# Scale factor  : 1.00000000e+00
# Time          	areaAverage(T)
100             	7.28801894e-09
