# Region type : sampledSurface Hospital
# Faces         : 1468
# Area          : 2.13291006e+05
# Scale factor  : 1.00000000e+00
# Time          	areaAverage(T)
100             	1.54542644e-08
