# Region type : sampledSurface MartinsSarmento
# Faces         : 796
# Area          : 3.57578449e+04
# Scale factor  : 1.00000000e+00
# Time          	areaAverage(T)
100             	2.30073826e-08
